 &FCI NORB=  18,NELEC= 4,MS2=0,
  ORBSYM=1,1,1,1,1,1,1,1,1,1,1,1,1,1,1,1,1,1,
  ISYM=1,
 &END
 0.5607035436909298    1    1    1    1
 -3.326433496104565e-11    1    1    2    1
 0.5607280955426769    1    1    2    2
 -0.07005021608233672    1    1    3    1
 2.540842382334576e-12    1    1    3    2
 0.2138321675437239    1    1    3    3
 -7.863338627369622e-12    1    1    4    1
 0.07272870038400253    1    1    4    2
 8.292715364958493e-12    1    1    4    3
 0.2159831640286531    1    1    4    4
 -0.004722814990249156    1    1    5    1
 -2.475974456558963e-13    1    1    5    2
 -0.005696160646338325    1    1    5    3
 7.933698680762076e-13    1    1    5    4
 0.3025166174272018    1    1    5    5
 0.3012054286166409    1    1    6    6
 -2.6335901475976e-15    1    1    7    1
 -3.137031745079192e-15    1    1    7    3
 -1.019959683708687e-15    1    1    7    4
 0.3012054286166408    1    1    7    7
 -2.162752160015727e-15    1    1    8    1
 -2.612432255961287e-15    1    1    8    3
 -1.079421246727025e-15    1    1    8    4
 2.54429567086193e-13    1    1    8    6
 -1.459891379590733e-11    1    1    8    7
 0.3012071610572399    1    1    8    8
 -1.459861162744857e-11    1    1    9    6
 -2.543984620582335e-13    1    1    9    7
 0.3012071610572395    1    1    9    9
 3.375250839520935e-13    1    1   10    1
 0.0008193422276759974    1    1   10    2
 -7.286172763544013e-14    1    1   10    3
 -0.003963623164507528    1    1   10    4
 1.448080265863095e-11    1    1   10    5
 0.3030056192519872    1    1   10   10
 -0.1428230525157556    1    1   11    1
 5.172207840630598e-12    1    1   11    2
 0.0737486723245475    1    1   11    3
 5.756992726791993e-12    1    1   11    4
 -0.001018125357845015    1    1   11    5
 -1.284536224409523e-13    1    1   11   10
 0.4719397597247008    1    1   11   11
 1.531429591606045e-11    1    1   12    1
 -0.1415577926935846    1    1   12    2
 -5.13496997679333e-12    1    1   12    3
 -0.07725901640182546    1    1   12    4
 -4.488906420628827e-13    1    1   12    5
 1.039819378576712e-15    1    1   12    7
 1.122132954815867e-15    1    1   12    8
 0.00406965524014891    1    1   12   10
 -2.681117183607062e-11    1    1   12   11
 0.4708141541925582    1    1   12   12
 -0.001608255307912501    1    1   13    1
 -1.047563421735436e-13    1    1   13    2
 0.002214252810839682    1    1   13    3
 -1.040114733023014e-13    1    1   13    4
 0.07422248367312125    1    1   13    5
 -1.402096841995613e-13    1    1   13    6
 2.492643295682262e-13    1    1   13    7
 2.061161466445348e-13    1    1   13    8
 -1.108570059677879e-13    1    1   13    9
 6.656176373464977e-12    1    1   13   10
 -0.0002265634785293888    1    1   13   11
 -2.439397723647234e-13    1    1   13   12
 0.512272067509304    1    1   13   13
 5.367846299559914e-15    1    1   14    1
 -7.385519788143832e-15    1    1   14    3
 1.791408344597985e-15    1    1   14    4
 -2.840331463493159e-13    1    1   14    5
 -0.03202860689324235    1    1   14    6
 0.06746983644403461    1    1   14    7
 -2.106089226765844e-11    1    1   14    8
 9.819797274995762e-12    1    1   14    9
 2.441434115038579e-14    1    1   14   10
 -1.555683662180071e-15    1    1   14   13
 0.5117848961406277    1    1   14   14
 1.034511425979602e-15    1    1   15    3
 -1.470869822091414e-15    1    1   15    4
 1.941336394481022e-14    1    1   15    5
 0.06746983644403452    1    1   15    6
 0.0320286068932423    1    1   15    7
 -1.108328766957986e-11    1    1   15    8
 -2.531748903218569e-11    1    1   15    9
 -4.227259187237739e-14    1    1   15   10
 0.5117848961406276    1    1   15   15
 4.313905980972358e-15    1    1   16    1
 -5.963160785895316e-15    1    1   16    3
 1.813983933689877e-15    1    1   16    4
 -2.311758962476643e-13    1    1   16    5
 -4.806117080701145e-12    1    1   16    6
 1.15192592466464e-11    1    1   16    7
 0.06966291909434043    1    1   16    8
 -0.02693031555235722    1    1   16    9
 2.312057575633603e-14    1    1   16   10
 -1.2658434787424e-15    1    1   16   13
 -2.970625969448406e-11    1    1   16   14
 -1.692128057548635e-12    1    1   16   15
 0.5117841667847174    1    1   16   16
 1.172761938231572e-15    1    1   17    3
 -1.659181881432937e-15    1    1   17    4
 2.875501002071973e-14    1    1   17    5
 1.567042214267625e-11    1    1   17    6
 6.382055345395652e-12    1    1   17    7
 0.02693031555235726    1    1   17    8
 0.06966291909434041    1    1   17    9
 -4.606642871028162e-14    1    1   17   10
 1.692211748044617e-12    1    1   17   14
 -2.970601871084015e-11    1    1   17   15
 0.5117841667847182    1    1   17   17
 1.20666880420272e-13    1    1   18    1
 0.0008232777446073748    1    1   18    2
 -2.562908808914149e-13    1    1   18    3
 0.00328110167116277    1    1   18    4
 4.151692513245786e-12    1    1   18    5
 4.908955852694367e-14    1    1   18    6
 -4.276497645212217e-15    1    1   18    7
 -5.334348462736307e-15    1    1   18    8
 5.17031428469968e-14    1    1   18    9
 0.07410958331468193    1    1   18   10
 -2.485447290547476e-13    1    1   18   11
 -0.0006246665243233375    1    1   18   12
 2.97172693739097e-11    1    1   18   13
 0.5122981785932713    1    1   18   18
 -3.326423181772232e-11    2    1    1    1
 0.4607281290097811    2    1    2    1
 3.326256028689649e-11    2    1    2    2
 2.534965948551735e-12    2    1    3    1
 -0.07021692117206906    2    1    3    2
 0.07255119366400736    2    1    4    1
 2.618915820649368e-12    2    1    4    2
 -0.1148582548036833    2    1    4    3
 -4.925654844616454e-14    2    1    5    1
 0.001090095886450495    2    1    5    2
 2.331686032647856e-15    2    1    5    3
 -0.01109706843256051    2    1    5    4
 -7.96215900722605e-13    2    1    5    5
 -3.587960606370755e-15    2    1    6    5
 -1.786414600937781e-11    2    1    6    6
 -1.25351878993374e-15    2    1    7    1
 -6.119158753385175e-15    2    1    7    4
 -1.439176304888263e-13    2    1    7    5
 -2.023948732051996e-12    2    1    7    6
 -2.030117318295549e-11    2    1    7    7
 -1.357665808095198e-15    2    1    8    1
 -5.094995087155749e-15    2    1    8    4
 -1.655694964377796e-13    2    1    8    5
 -0.003523918350406191    2    1    8    6
 0.202203982842795    2    1    8    7
 2.022908416106718e-11    2    1    8    8
 -6.420063454335651e-15    2    1    9    5
 0.2022039828427948    2    1    9    6
 0.003523918350406237    2    1    9    7
 2.065210239837352e-12    2    1    9    8
 1.793493899059087e-11    2    1    9    9
 -0.004955409870871282    2    1   10    1
 -1.810032235385597e-13    2    1   10    2
 0.001164995102811386    2    1   10    3
 2.182664593903448e-14    2    1   10    4
 -0.2005603234942251    2    1   10    5
 -3.580100975603313e-15    2    1   10    6
 -1.651887774393525e-13    2    1   10    7
 -1.4351232612871e-13    2    1   10    8
 -6.123322704373367e-15    2    1   10    9
 7.95987303811446e-13    2    1   10   10
 5.171857454755067e-12    2    1   11    1
 -0.1428441128181847    2    1   11    2
 -7.824221646019749e-15    2    1   11    3
 -0.07962574004076037    2    1   11    4
 2.906242372432146e-15    2    1   11    5
 0.001800903882601609    2    1   11   10
 -7.916143873525154e-14    2    1   11   11
 -0.1415484227180292    2    1   12    1
 -5.12452771151411e-12    2    1   12    2
 0.07123168037757167    2    1   12    3
 -8.196400255482997e-15    2    1   12    4
 0.00632887127946274    2    1   12    5
 3.491590413613188e-15    2    1   12    7
 2.892248552085484e-15    2    1   12    8
 -1.236354463401076e-14    2    1   12   10
 0.3713616608016767    2    1   12   11
 7.786841128104223e-14    2    1   12   12
 -6.234185623253355e-14    2    1   13    1
 0.0008595249263475165    2    1   13    2
 5.595535600078903e-14    2    1   13    3
 0.002293073911437075    2    1   13    4
 -1.552714817440405e-12    2    1   13    5
 -1.152736894176763e-13    2    1   13    6
 1.50127331978104e-13    2    1   13    7
 1.895684796038165e-13    2    1   13    8
 -1.376170051235325e-13    2    1   13    9
 -0.07496197549537055    2    1   13   10
 6.54738751187617e-14    2    1   13   11
 0.003215483853533542    2    1   13   12
 -1.545581492157175e-11    2    1   13   13
 -2.848256995924995e-15    2    1   14    2
 1.6259514454683e-15    2    1   14    3
 -7.625430412073764e-15    2    1   14    4
 -7.229246522862093e-14    2    1   14    5
 9.990828242573874e-12    2    1   14    6
 -2.238564188641033e-11    2    1   14    7
 0.06770583448978741    2    1   14    8
 -0.03070665424468963    2    1   14    9
 2.31649099579573e-13    2    1   14   10
 1.911664070065501e-15    2    1   14   11
 -1.064638381142795e-14    2    1   14   12
 8.901958996242031e-13    2    1   14   13
 -2.344668648879258e-10    2    1   14   14
 -1.32101116056596e-15    2    1   15    3
 1.091792448160398e-15    2    1   15    4
 1.854338346533183e-14    2    1   15    5
 -2.642882242809492e-11    2    1   15    6
 -1.305043178018197e-11    2    1   15    7
 0.03070665424468961    2    1   15    8
 0.06770583448978727    2    1   15    9
 -4.724581406831844e-14    2    1   15   10
 -1.565689195303973e-15    2    1   15   11
 1.597447659958625e-15    2    1   15   12
 1.47599878841327e-14    2    1   15   13
 -1.178826884042008e-12    2    1   15   14
 -2.862616164515278e-10    2    1   15   15
 -2.325641608510653e-15    2    1   16    2
 1.624352778252275e-15    2    1   16    3
 -6.174768503055564e-15    2    1   16    4
 -7.970286082504249e-14    2    1   16    5
 -0.02800905586048313    2    1   16    6
 0.06886091941864882    2    1   16    7
 2.319348924120069e-11    2    1   16    8
 -8.179015993616053e-12    2    1   16    9
 1.842909182399142e-13    2    1   16   10
 1.891181283171506e-15    2    1   16   11
 -8.564182957437005e-15    2    1   16   12
 1.126820739808751e-12    2    1   16   13
 0.4114638811329634    2    1   16   14
 0.02343820322393837    2    1   16   15
 2.347668074640627e-10    2    1   16   16
 -1.483436261701616e-15    2    1   17    3
 1.24257636661765e-15    2    1   17    4
 2.210856175140722e-14    2    1   17    5
 0.06886091941864886    2    1   17    6
 0.02800905586048316    2    1   17    7
 1.139579221740903e-11    2    1   17    8
 2.711313760340792e-11    2    1   17    9
 -5.045578112704215e-14    2    1   17   10
 -1.754315473688785e-15    2    1   17   11
 1.792711159933011e-15    2    1   17   12
 -7.661762367358267e-14    2    1   17   13
 -0.02343820322393835    2    1   17   14
 0.4114638811329637    2    1   17   15
 4.112109608945212e-12    2    1   17   16
 2.8595917934719e-10    2    1   17   17
 -0.001665037973490826    2    1   18    1
 -7.61765706194794e-14    2    1   18    2
 0.002973287230365047    2    1   18    3
 -4.299492915388328e-14    2    1   18    4
 -0.07476693044559221    2    1   18    5
 5.025918559439276e-14    2    1   18    6
 -6.555149350880689e-14    2    1   18    7
 -5.824853899578076e-14    2    1   18    8
 4.651810854950913e-14    2    1   18    9
 1.555507815937353e-12    2    1   18   10
 0.003502953596554126    2    1   18   11
 -5.992140674812349e-14    2    1   18   12
 -0.4116074056050957    2    1   18   13
 1.127279327197742e-12    2    1   18   14
 -1.18828068648398e-14    2    1   18   15
 8.878844626666693e-13    2    1   18   16
 -3.533192266229794e-14    2    1   18   17
 1.545471608087931e-11    2    1   18   18
 0.5607280955426769    2    2    1    1
 3.326241179218663e-11    2    2    2    1
 0.5607526499880762    2    2    2    2
 -0.07005525380877381    2    2    3    1
 -7.59833268647335e-12    2    2    3    2
 0.2138330820307594    2    2    3    3
 2.61251970954275e-12    2    2    4    1
 0.07273386508679537    2    2    4    2
 -8.29241147147861e-12    2    2    4    3
 0.2159851631104045    2    2    4    4
 -0.004721714585287066    2    2    5    1
 -9.016532800101853e-14    2    2    5    2
 -0.00569391798132559    2    2    5    3
 -8.089872051029965e-13    2    2    5    4
 0.3025206469472707    2    2    5    5
 0.301212258015833    2    2    6    6
 -2.632258175892921e-15    2    2    7    1
 -3.134375519286508e-15    2    2    7    3
 -1.020820115769504e-15    2    2    7    4
 0.3012122580158328    2    2    7    7
 -2.161691363759145e-15    2    2    8    1
 -2.610126157147396e-15    2    2    8    3
 -1.08022468645969e-15    2    2    8    4
 -2.544022945758082e-13    2    2    8    6
 1.459831437065589e-11    2    2    8    7
 0.3012139906729757    2    2    8    8
 1.459858761238967e-11    2    2    9    6
 2.544203378613524e-13    2    2    9    7
 0.3012139906729753    2    2    9    9
 -3.779554399893655e-13    2    2   10    1
 0.0008179590953196306    2    2   10    2
 9.535599094088382e-14    2    2   10    3
 -0.00396142496573541    2    2   10    4
 -1.447903989059059e-11    2    2   10    5
 0.3030094494612801    2    2   10   10
 -0.1428342160973571    2    2   11    1
 -1.545425261607618e-11    2    2   11    2
 0.07375357108982647    2    2   11    3
 -5.74042641777192e-12    2    2   11    4
 -0.001016983356736007    2    2   11    5
 1.315882204392257e-13    2    2   11   10
 0.4719585602562176    2    2   11   11
 -5.124257532277944e-12    2    2   12    1
 -0.1415688644839948    2    2   12    2
 5.150397888725385e-12    2    2   12    3
 -0.07726384162968743    2    2   12    4
 4.649577917320077e-13    2    2   12    5
 1.041169002143631e-15    2    2   12    7
 1.123366616900083e-15    2    2   12    8
 0.004068765698026437    2    2   12   10
 2.681179761133961e-11    2    2   12   11
 0.4708330899447817    2    2   12   12
 -0.001607704350413907    2    2   13    1
 1.934095057996104e-14    2    2   13    2
 0.002212928923980061    2    2   13    3
 2.27068252798468e-13    2    2   13    4
 0.07422777687347015    2    2   13    5
 -1.402186219904703e-13    2    2   13    6
 2.492805624335674e-13    2    2   13    7
 2.061295641861578e-13    2    2   13    8
 -1.108640875216935e-13    2    2   13    9
 -4.167879209721585e-12    2    2   13   10
 -0.000226993095386372    2    2   13   11
 2.203726612234621e-13    2    2   13   12
 0.5122916458148258    2    2   13   13
 5.360758639800141e-15    2    2   14    1
 -7.379514544460824e-15    2    2   14    3
 1.789103085143441e-15    2    2   14    4
 -2.840530895715606e-13    2    2   14    5
 -0.03203065320842305    2    2   14    6
 0.06747414710765524    2    2   14    7
 -1.128550169745295e-11    2    2   14    8
 5.386383638592223e-12    2    2   14    9
 2.441628595072993e-14    2    2   14   10
 -1.550978557878526e-15    2    2   14   13
 0.511805889807876    2    2   14   14
 1.030271676510536e-15    2    2   15    3
 -1.466775163042084e-15    2    2   15    4
 1.941481410884117e-14    2    2   15    5
 0.06747414710765519    2    2   15    6
 0.03203065320842301    2    2   15    7
 -6.649943824161991e-12    2    2   15    8
 -1.554236000662092e-11    2    2   15    9
 -4.227563161795668e-14    2    2   15   10
 0.5118058898078759    2    2   15   15
 4.307532551560764e-15    2    2   16    1
 -5.958222872591402e-15    2    2   16    3
 1.811864040593726e-15    2    2   16    4
 -2.31192111085582e-13    2    2   16    5
 -8.850937849977e-12    2    2   16    6
 2.146352509721742e-11    2    2   16    7
 0.06966736982826305    2    2   16    8
 -0.02693203611862883    2    2   16    9
 2.312243866926823e-14    2    2   16   10
 -1.262044769405657e-15    2    2   16   13
 2.970692446671209e-11    2    2   16   14
 1.692224824262068e-12    2    2   16   15
 0.5118051604337827    2    2   16   16
 1.168486028189254e-15    2    2   17    3
 -1.654795963781726e-15    2    2   17    4
 2.875706713108586e-14    2    2   17    5
 2.561493602692286e-11    2    2   17    6
 1.042697056754137e-11    2    2   17    7
 0.02693203611862886    2    2   17    8
 0.06966736982826299    2    2   17    9
 -4.606977656806547e-14    2    2   17   10
 -1.692141564991484e-12    2    2   17   14
 2.970733174680577e-11    2    2   17   15
 0.5118051604337833    2    2   17   17
 -1.197225715464796e-13    2    2   18    1
 0.0008226605293429494    2    2   18    2
 1.730545343040406e-13    2    2   18    3
 0.003279891894038305    2    2   18    4
 -6.64440198981794e-12    2    2   18    5
 4.909274022608381e-14    2    2   18    6
 -4.276606014894621e-15    2    2   18    7
 -5.334521364163833e-15    2    2   18    8
 5.170647072258487e-14    2    2   18    9
 0.07411494348635327    2    2   18   10
 2.57271136759008e-13    2    2   18   11
 -0.0006242967652624323    2    2   18   12
 -2.971689343566079e-11    2    2   18   13
 0.5123177423162233    2    2   18   18
 -0.07005021608233671    3    1    1    1
 2.534962195897029e-12    3    1    2    1
 -0.07005525380877382    3    1    2    2
 0.01508814445950214    3    1    3    1
 -0.005065506427901174    3    1    3    3
 1.132062557238859e-12    3    1    4    1
 -0.01567975014709927    3    1    4    2
 -1.970734263731092e-13    3    1    4    3
 -0.005562813830345938    3    1    4    4
 8.924154054524613e-05    3    1    5    1
 -0.0001722828418831705    3    1    5    3
 -1.920050240337468e-14    3    1    5    4
 -0.0130182835253267    3    1    5    5
 -0.01305528367108293    3    1    6    6
 -0.01305528367108293    3    1    7    7
 -8.307445856412837e-15    3    1    8    6
 4.768422603595086e-13    3    1    8    7
 -0.01305555330642866    3    1    8    8
 4.768286596230781e-13    3    1    9    6
 8.310826724945635e-15    3    1    9    7
 -0.01305555330642864    3    1    9    9
 -5.58095889992384e-14    3    1   10    1
 0.0007816145073154295    3    1   10    2
 6.497963330993634e-15    3    1   10    3
 -0.0002348226535759171    3    1   10    4
 -4.756557779863695e-13    3    1   10    5
 -0.01300339828415281    3    1   10   10
 0.03505949837714793    3    1   11    1
 -3.788027380192482e-15    3    1   11    2
 -0.01224764544039897    3    1   11    3
 -4.684089289750273e-13    3    1   11    4
 -0.0005795236756223774    3    1   11    5
 1.25529478723986e-14    3    1   11   10
 -0.05257672763578212    3    1   11   11
 -2.508577032440211e-12    3    1   12    1
 0.03479779919130292    3    1   12    2
 4.372228972011672e-13    3    1   12    3
 0.01283451113107384    3    1   12    4
 2.925985527390307e-14    3    1   12    5
 -3.798720317820849e-05    3    1   12   10
 1.902490286866743e-12    3    1   12   11
 -0.0525165945827543    3    1   12   12
 -0.0002746904829414219    3    1   13    1
 8.765310239681649e-15    3    1   13    2
 0.0002955998314084217    3    1   13    3
 -0.0146112404382605    3    1   13    5
 2.742148844772846e-14    3    1   13    6
 -4.880056216630473e-14    3    1   13    7
 -4.034999098993191e-14    3    1   13    8
 2.168043826589233e-14    3    1   13    9
 -7.733345639858565e-13    3    1   13   10
 0.0001205534732633309    3    1   13   11
 1.640565587560035e-14    3    1   13   12
 -0.05842299299719093    3    1   13   13
 5.586093772922016e-14    3    1   14    5
 0.006263750456707483    3    1   14    6
 -0.01319489855581161    3    1   14    7
 3.643171060878567e-12    3    1   14    8
 -1.70471172559166e-12    3    1   14    9
 -4.853627912627465e-15    3    1   14   10
 -0.05844264391519504    3    1   14   14
 -3.844172772636766e-15    3    1   15    5
 -0.01319489855581161    3    1   15    6
 -0.006263750456707485    3    1   15    7
 1.951806202385536e-12    3    1   15    8
 4.475634019028221e-12    3    1   15    9
 8.325456530053701e-15    3    1   15   10
 -0.05844264391519502    3    1   15   15
 4.546150949954634e-14    3    1   16    5
 1.136684129346916e-12    3    1   16    6
 -2.736561382563418e-12    3    1   16    7
 -0.0136238469681615    3    1   16    8
 0.005266711511080237    3    1   16    9
 -4.597714427793405e-15    3    1   16   10
 2.11209156331778e-12    3    1   16   14
 1.203081098716755e-13    3    1   16   15
 -0.05844249300681677    3    1   16   16
 -5.676115965762662e-15    3    1   17    5
 -3.548392492249242e-12    3    1   17    6
 -1.444896242364005e-12    3    1   17    7
 -0.005266711511080248    3    1   17    8
 -0.0136238469681615    3    1   17    9
 9.074174639816403e-15    3    1   17   10
 -1.203167754376663e-13    3    1   17   14
 2.112055196956583e-12    3    1   17   15
 -0.05844249300681685    3    1   17   17
 -2.943080515551565e-14    3    1   18    1
 0.0004837245248429191    3    1   18    2
 6.987361263490267e-15    3    1   18    3
 4.715234117713752e-05    3    1   18    4
 -2.818170852028425e-13    3    1   18    5
 -9.601287707830225e-15    3    1   18    6
 1.007789139245647e-15    3    1   18    8
 -1.011539731940016e-14    3    1   18    9
 -0.01462390765133136    3    1   18   10
 1.637878838457845e-14    3    1   18   11
 3.584020966565788e-05    3    1   18   12
 -2.114842613520924e-12    3    1   18   13
 -0.05841746192219349    3    1   18   18
 2.540821652932359e-12    3    2    1    1
 -0.07021692117206904    3    2    2    1
 -7.598327203521366e-12    3    2    2    2
 0.01508894219196605    3    2    3    2
 -1.828431048609549e-13    3    2    3    3
 -0.01568045452009752    3    2    4    1
 -1.132069416761368e-12    3    2    4    2
 0.005460004105066117    3    2    4    3
 -2.008056504786522e-13    3    2    4    4
 0.0001117304355201165    3    2    5    2
 -6.561587884481771e-15    3    2    5    3
 0.0005188413276203878    3    2    5    4
 -4.176035878199109e-13    3    2    5    5
 6.956675720790419e-13    3    2    6    6
 9.421814126433075e-15    3    2    7    5
 1.322102798590163e-13    3    2    7    6
 8.548604657270013e-13    3    2    7    7
 1.083681968322961e-14    3    2    8    5
 0.0002301909076691225    3    2    8    6
 -0.01320845539441329    3    2    8    7
 -1.792684731572007e-12    3    2    8    8
 -0.01320845539441328    3    2    9    6
 -0.0002301909076691269    3    2    9    7
 -1.349039040943897e-13    3    2    9    8
 -1.642826749043711e-12    3    2    9    9
 0.0007593102540239417    3    2   10    1
 5.539328006077886e-14    3    2   10    2
 -0.0001705110789616499    3    2   10    3
 -9.497100045407997e-15    3    2   10    4
 0.01317685169670671    3    2   10    5
 1.083275488966849e-14    3    2   10    7
 9.410693005174534e-15    3    2   10    8
 -5.216765137341019e-13    3    2   10   10
 -3.801523035478224e-15    3    2   11    1
 0.03506251197289191    3    2   11    2
 -4.408122930513114e-13    3    2   11    3
 0.01293741599649858    3    2   11    4
 -2.146202880070468e-14    3    2   11    5
 -0.0003158443650402907    3    2   11   10
 -1.886778614256842e-12    3    2   11   11
 0.03479746747758487    3    2   12    1
 2.516013135109466e-12    3    2   12    2
 -0.01214690663154367    3    2   12    3
 4.646580818076163e-13    3    2   12    4
 -0.0008143568234713022    3    2   12    5
 -0.05270393318646721    3    2   12   11
 -1.906919785153713e-12    3    2   12   12
 8.579675453617099e-15    3    2   13    1
 -0.00026514642387184    3    2   13    2
 4.140042646186766e-15    3    2   13    3
 4.960561854214759e-05    3    2   13    4
 -2.242854872896051e-13    3    2   13    5
 2.264902114764191e-14    3    2   13    6
 -2.953219344216388e-14    3    2   13    7
 -3.728260193745026e-14    3    2   13    8
 2.703964462709243e-14    3    2   13    9
 0.01462016567669643    3    2   13   10
 -5.309559655288895e-15    3    2   13   11
 -0.0004354815557747361    3    2   13   12
 9.089752996900902e-14    3    2   13   13
 1.415648851057416e-14    3    2   14    5
 -1.737239463595391e-12    3    2   14    6
 3.922799731756911e-12    3    2   14    7
 -0.01330500317431249    3    2   14    8
 0.006034223420726563    3    2   14    9
 -4.515465419878683e-14    3    2   14   10
 1.44282559584232e-15    3    2   14   12
 -1.265523204453672e-13    3    2   14   13
 3.123084986149385e-11    3    2   14   14
 -3.60621074069261e-15    3    2   15    5
 4.717354541849405e-12    3    2   15    6
 2.338497722711127e-12    3    2   15    7
 -0.006034223420726568    3    2   15    8
 -0.01330500317431247    3    2   15    9
 9.229690910691344e-15    3    2   15   10
 -2.123658772561014e-15    3    2   15   13
 1.676264554696423e-13    3    2   15   14
 3.859592616880147e-11    3    2   15   15
 1.5610553248732e-14    3    2   16    5
 0.005504253352336936    3    2   16    6
 -0.01353233570039243    3    2   16    7
 -5.049641874306131e-12    3    2   16    8
 1.797405484464973e-12    3    2   16    9
 -3.591811901741278e-14    3    2   16   10
 1.160209445150148e-15    3    2   16   12
 -1.60199293855074e-13    3    2   16   13
 -0.05850913466894277    3    2   16   14
 -0.003332853870554704    3    2   16   15
 -3.549299707446231e-11    3    2   16   16
 -4.301095059482267e-15    3    2   17    5
 -0.01353233570039244    3    2   17    6
 -0.005504253352336944    3    2   17    7
 -2.429553557086315e-12    3    2   17    8
 -5.819897647841426e-12    3    2   17    9
 9.853035897527877e-15    3    2   17   10
 1.086672486057676e-14    3    2   17   13
 0.003332853870554703    3    2   17   14
 -0.0585091346689428    3    2   17   15
 -5.847311228865713e-13    3    2   17   16
 -4.277242806696913e-11    3    2   17   17
 0.0004741264502150812    3    2   18    1
 3.953357644471758e-14    3    2   18    2
 -0.0003468751814808688    3    2   18    3
 0.01460143501226561    3    2   18    5
 -9.875340120121837e-15    3    2   18    6
 1.283168243443088e-14    3    2   18    7
 1.140294044193789e-14    3    2   18    8
 -9.140931621668607e-15    3    2   18    9
 -8.31358419818046e-13    3    2   18   10
 -0.0005165656353630623    3    2   18   11
 9.405916288016372e-15    3    2   18   12
 0.05858677302657613    3    2   18   13
 -1.604865570574761e-13    3    2   18   14
 1.717797714650245e-15    3    2   18   15
 -1.264088062345795e-13    3    2   18   16
 5.055941865414198e-15    3    2   18   17
 -4.308601056965291e-12    3    2   18   18
 0.2138321675437239    3    3    1    1
 0.2138330820307595    3    3    2    2
 -0.005065506427901122    3    3    3    1
 -1.828300316661228e-13    3    3    3    2
 0.1760816850996012    3    3    3    3
 -1.94298477808973e-13    3    3    4    1
 0.005383688662597134    3    3    4    2
 0.1747165316623636    3    3    4    4
 -0.004001671967619524    3    3    5    1
 -1.370610288731136e-13    3    3    5    2
 -0.00662048884681657    3    3    5    3
 -1.179609163138853e-14    3    3    5    4
 0.1975818528382407    3    3    5    5
 0.1957292163220708    3    3    6    6
 -2.21475080013914e-15    3    3    7    1
 -3.637931518829659e-15    3    3    7    3
 -1.528564404444294e-15    3    3    7    4
 1.02342481105804e-15    3    3    7    5
 0.1957292163220707    3    3    7    7
 -1.833628941746896e-15    3    3    8    1
 1.015824178526327e-15    3    3    8    2
 -3.023847152865641e-15    3    3    8    3
 -1.613523400392421e-15    3    3    8    4
 0.1957292768391362    3    3    8    8
 0.195729276839136    3    3    9    9
 -1.265561176850356e-13    3    3   10    1
 0.003725325373250465    3    3   10    2
 1.310680549741722e-14    3    3   10    3
 -0.005959626183294274    3    3   10    4
 1.241572917488345e-15    3    3   10    5
 0.1981679776018509    3    3   10   10
 -0.008617013682029186    3    3   11    1
 -3.102303669410556e-13    3    3   11    2
 0.01169259728603284    3    3   11    3
 1.386077356012421e-15    3    3   11    4
 -0.003211942690220591    3    3   11    5
 -1.763705327710648e-15    3    3   11    7
 -1.475117348986317e-15    3    3   11    8
 5.996845964207754e-15    3    3   11   10
 0.2056376915741679    3    3   11   11
 3.078004951749484e-13    3    3   12    1
 -0.0085545029113931    3    3   12    2
 1.2499160202035e-15    3    3   12    3
 -0.0127056805570901    3    3   12    4
 6.709104364500556e-15    3    3   12    5
 0.003541561371278326    3    3   12   10
 0.2048788151315286    3    3   12   12
 -0.001655443929370666    3    3   13    1
 -2.947029389538379e-14    3    3   13    2
 0.003539895203773764    3    3   13    3
 6.487756008920451e-14    3    3   13    4
 0.004880017741971727    3    3   13    5
 -1.034192238818584e-14    3    3   13    6
 1.806994321618414e-14    3    3   13    7
 1.495481113221462e-14    3    3   13    8
 -8.18049562601619e-15    3    3   13    9
 7.874383527450137e-14    3    3   13   10
 0.0002360177202617988    3    3   13   11
 -5.293961769719655e-15    3    3   13   12
 0.2106675694640848    3    3   13   13
 5.510102232150211e-15    3    3   14    1
 -1.177334133222539e-14    3    3   14    3
 1.900880210774718e-15    3    3   14    4
 -1.899585207700675e-14    3    3   14    5
 -0.002364059193259954    3    3   14    6
 0.004980007018254592    3    3   14    7
 -1.193715268468939e-12    3    3   14    8
 5.611626835407368e-13    3    3   14    9
 1.354166587310559e-15    3    3   14   10
 -2.222040830759626e-15    3    3   14   13
 0.2099906172369146    3    3   14   14
 1.710948633688014e-15    3    3   15    3
 -1.521384107803729e-15    3    3   15    4
 1.136259063670672e-15    3    3   15    5
 0.00498000701825457    3    3   15    6
 0.002364059193259921    3    3   15    7
 -6.544414706974912e-13    3    3   15    8
 -1.507878908775278e-12    3    3   15    9
 -2.78305438179784e-15    3    3   15   10
 0.2099906172369144    3    3   15   15
 4.447454510560844e-15    3    3   16    1
 -9.510952143429668e-15    3    3   16    3
 1.917883033948208e-15    3    3   16    4
 -1.548087649278824e-14    3    3   16    5
 -5.040303005927812e-13    3    3   16    6
 1.217195886081629e-12    3    3   16    7
 0.005141905728104266    3    3   16    8
 -0.00198775970916172    3    3   16    9
 1.268623212780037e-15    3    3   16   10
 -1.797554474979485e-15    3    3   16   13
 0.2099905434995359    3    3   16   16
 1.936497878195959e-15    3    3   17    3